 Gaussian 09, Revision B.01,
 Gaussian 09:  EM64M-G09RevB.01 12-Aug-2010

 ----------------------------------------------------------------------
 #n freq=noraman hf sto-3g opt=(z-matrix,verytight) # nosymm scf=tight
 FormCheck=All # integral=(grid=ultrafine) # iop(1/18=40,2/9=111,2/11=1
 ,7/33=1,1/33=1) # iop(3/27=30,11/27=30)
 ----------------------------------------------------------------------

 --
 xx
 --
 Symbolic Z-matrix:
 Charge =  0 Multiplicity = 1

 SCF Done:  E(RHF) =  -74.9659011951     A.U. after    7 cycles
 SCF Done:  E(RHF) =  -74.9659012154     A.U. after    6 cycles
 SCF Done:  E(RHF) =  -74.9659012169     A.U. after    6 cycles
 SCF Done:  E(RHF) =  -74.9659012171     A.U. after    5 cycles
 SCF Done:  E(RHF) =  -74.9659012171     A.U. after    4 cycles
 Optimization completed.
    -- Stationary point found.
 Normal termination of Gaussian 09 at Sun Aug  7 12:15:23 2016.

 --------------------------------------------------------------------
 #N Geom=AllCheck Guess=TCheck SCRF=Check Test GenChk RHF/STO-3G Freq
 --------------------------------------------------------------------

 xx
 --
 Z-Matrix taken from the checkpoint file:
 xx.chk
 Charge =  0 Multiplicity = 1

                          Input orientation:
 ---------------------------------------------------------------------
 Center     Atomic      Atomic             Coordinates (Angstroms)
 Number     Number       Type             X           Y           Z
 ---------------------------------------------------------------------
      1          8           0        0.000000    0.000000    0.000000
      2          1           0        0.000000    0.000000    0.989409
      3          1           0        0.974297    0.000000   -0.172266
 ---------------------------------------------------------------------

 SCF Done:  E(RHF) =  -74.9659012171     A.U. after    1 cycles

 Alpha  occ. eigenvalues --  -20.25158  -1.25755  -0.59386  -0.45973  -0.39262
 Alpha virt. eigenvalues --    0.58179   0.69267

 Mulliken atomic charges:
              1
     1  O   -0.330530
     2  H    0.165265
     3  H    0.165265
 Sum of Mulliken atomic charges =   0.00000

 Dipole moment (field-independent basis, Debye):
    X=              1.3096    Y=              0.0000    Z=              1.0984  Tot=              1.7092
 Quadrupole moment (field-independent basis, Debye-Ang):
   XX=             -4.7280   YY=             -6.1257   ZZ=             -4.6561
   XY=              0.0000   XZ=             -0.2033   YZ=              0.0000

  Exact polarizability:   3.781   0.000   0.040  -1.449   0.000   4.293
 Approx polarizability:   3.156   0.000   0.020  -0.656   0.000   3.388

                     1                      2                      3
                     A                      A                      A
 Frequencies --  2170.0459              4140.0022              4391.0669
 Red. masses --     1.0785                 1.0491                 1.0774
 Frc consts  --     2.9923                10.5941                12.2392
 IR Inten    --     7.2377                44.2870                29.9720

 - Thermochemistry -
 -------------------
 Temperature   298.150 Kelvin.  Pressure   1.00000 Atm.
 Atom     1 has atomic number  8 and mass  15.99491

 Molecular mass:    18.01056 amu.
 Principal axes and moments of inertia in atomic units:
                           1         2         3
     Eigenvalues --     2.58411   4.13660   6.72072
           X           -0.64261   0.76620   0.00000
           Y            0.00000   0.00000   1.00000
           Z            0.76620   0.64261   0.00000
 This molecule is an asymmetric top.
 Rotational symmetry number  2.
 Rotational temperatures (Kelvin)     33.51780    20.93840    12.88759
 Rotational constants (GHZ):         698.39857   436.28597   268.53410
 Zero-point vibrational energy      64006.9 (Joules/Mol)
                                   15.29801 (Kcal/Mol)
 Vibrational temperatures:   3122.21  5956.53  6317.76
          (Kelvin)

 Zero-point correction=                           0.024379 (Hartree/Particle)
 Thermal correction to Energy=                    0.027212
 Thermal correction to Enthalpy=                  0.028156
 Thermal correction to Gibbs Free Energy=         0.006641
 Sum of electronic and zero-point Energies=            -74.941522
 Sum of electronic and thermal Energies=               -74.938689
 Sum of electronic and thermal Enthalpies=             -74.937745
 Sum of electronic and thermal Free Energies=          -74.959260

                     E (Thermal)             CV                S
                      KCal/Mol        Cal/Mol-Kelvin    Cal/Mol-Kelvin
 Total                   17.076              5.968             45.282
 Electronic               0.000              0.000              0.000
 Translational            0.889              2.981             34.608
 Rotational               0.889              2.981             10.673
 Vibrational             15.298              0.006              0.001

 Optimization completed.
    -- Stationary point found.
 Normal termination of Gaussian 09 at Sun Aug  7 12:15:24 2016.
