 Gaussian 09, Revision B.01,
 Gaussian 09:  EM64M-G09RevB.01 12-Aug-2010

 ----------------
 #hf sto-3g nosym
 ----------------

 99/5=1,9=1/99;

 Symbolic Z-matrix:
 Charge =  0 Multiplicity = 1

                          Input orientation:
 ---------------------------------------------------------------------
 Center     Atomic      Atomic             Coordinates (Angstroms)
 Number     Number       Type             X           Y           Z
 ---------------------------------------------------------------------
      1          8           0        0.000000    0.000000    0.000000
      2          1           0        0.000000    0.000000    1.000000
      3          1           0        0.984808    0.000000   -0.173648
 ---------------------------------------------------------------------

 SCF Done:  E(RHF) =  -74.9656570251     A.U. after    7 cycles

 Alpha  occ. eigenvalues --  -20.25303  -1.25259  -0.58858  -0.45848  -0.39216
 Alpha virt. eigenvalues --    0.57187   0.68078

 Mulliken atomic charges:
              1
     1  O   -0.321427
     2  H    0.160714
     3  H    0.160714
 Sum of Mulliken atomic charges =   0.00000

 Dipole moment (field-independent basis, Debye):
    X=              1.2980    Y=              0.0000    Z=              1.0891  Tot=              1.6944
 Quadrupole moment (field-independent basis, Debye-Ang):
   XX=             -4.7261   YY=             -6.1345   ZZ=             -4.6540
   XY=              0.0000   XZ=             -0.2044   YZ=              0.0000

 Normal termination of Gaussian 09 at Tue Jun 25 17:29:45 2019.
