 Gaussian 09, Revision B.01,
 Gaussian 09:  EM64M-G09RevB.01 12-Aug-2010

 ----------------------------------
 #hf sto-3g opt=z-matrix freq nosym
 ----------------------------------

 99/9=1/99;

 Symbolic Z-matrix:
 Charge =  0 Multiplicity = 1

 SCF Done:  E(RHF) =  -74.9656570251     A.U. after    7 cycles
 SCF Done:  E(RHF) =  -74.9658683341     A.U. after    7 cycles
 SCF Done:  E(RHF) =  -74.9658993395     A.U. after    7 cycles
 SCF Done:  E(RHF) =  -74.9659012077     A.U. after    7 cycles
 Optimization completed.
    -- Stationary point found.
 Normal termination of Gaussian 09 at Sat Oct 26 09:45:09 2013.

 ---------------------------------------------------------------
 #N Geom=AllCheck Guess=TCheck SCRF=Check GenChk RHF/STO-3G Freq
 ---------------------------------------------------------------

 Z-Matrix taken from the checkpoint file:
 h2o_freq.chk
 Charge =  0 Multiplicity = 1

                          Input orientation:
 ---------------------------------------------------------------------
 Center     Atomic      Atomic             Coordinates (Angstroms)
 Number     Number       Type             X           Y           Z
 ---------------------------------------------------------------------
      1          8           0        0.000000    0.000000    0.000000
      2          1           0        0.000000    0.000000    0.989453
      3          1           0        0.974376    0.000000   -0.172072
 ---------------------------------------------------------------------

 SCF Done:  E(RHF) =  -74.9659012077     A.U. after    1 cycles

 Alpha  occ. eigenvalues --  -20.25160  -1.25754  -0.59381  -0.45975  -0.39262
 Alpha virt. eigenvalues --    0.58177   0.69259

 Mulliken atomic charges:
              1
     1  O   -0.330476
     2  H    0.165238
     3  H    0.165238
 Sum of Mulliken atomic charges =   0.00000

 Dipole moment (field-independent basis, Debye):
    X=              1.3095    Y=              0.0000    Z=              1.0985  Tot=              1.7092
 Quadrupole moment (field-independent basis, Debye-Ang):
   XX=             -4.7280   YY=             -6.1257   ZZ=             -4.6563
   XY=              0.0000   XZ=             -0.2030   YZ=              0.0000

  Exact polarizability:   3.782   0.000   0.040  -1.448   0.000   4.293
 Approx polarizability:   3.157   0.000   0.020  -0.655   0.000   3.389

                     1                      2                      3
                     A                      A                      A
 Frequencies --  2170.2443              4139.5837              4390.5188
 Red. masses --     1.0785                 1.0491                 1.0773
 Frc consts  --     2.9928                10.5921                12.2360
 IR Inten    --     7.2314                44.3020                29.9937
 Raman Activ --     9.2685                47.8217                21.5625

 - Thermochemistry -
 -------------------
 Temperature   298.150 Kelvin.  Pressure   1.00000 Atm.
 Atom     1 has atomic number  8 and mass  15.99491

 Molecular mass:    18.01056 amu.
 Principal axes and moments of inertia in atomic units:
                           1         2         3
     Eigenvalues --     2.58498   4.13625   6.72123
           X           -0.64269   0.76613   0.00000
           Y            0.00000   0.00000   1.00000
           Z            0.76613   0.64269   0.00000
 This molecule is an asymmetric top.
 Rotational symmetry number  2.
 Rotational temperatures (Kelvin)     33.50654    20.94018    12.88660
 Rotational constants (GHZ):         698.16386   436.32317   268.51349
 Zero-point vibrational energy      64002.3 (Joules/Mol)
                                   15.29691 (Kcal/Mol)
 Vibrational temperatures:   3122.49  5955.93  6316.97
          (Kelvin)

 Zero-point correction=                           0.024377 (Hartree/Particle)
 Thermal correction to Energy=                    0.027210
 Thermal correction to Enthalpy=                  0.028154
 Thermal correction to Gibbs Free Energy=         0.006639
 Sum of electronic and zero-point Energies=            -74.941524
 Sum of electronic and thermal Energies=               -74.938691
 Sum of electronic and thermal Enthalpies=             -74.937747
 Sum of electronic and thermal Free Energies=          -74.959262

                     E (Thermal)             CV                S
                      KCal/Mol        Cal/Mol-Kelvin    Cal/Mol-Kelvin
 Total                   17.075              5.968             45.282
 Electronic               0.000              0.000              0.000
 Translational            0.889              2.981             34.608
 Rotational               0.889              2.981             10.673
 Vibrational             15.297              0.006              0.001

 Optimization completed.
    -- Stationary point found.
 Normal termination of Gaussian 09 at Sat Oct 26 09:45:11 2013.
